# vtk DataFile Version 2.0
Exact distance
ASCII

DATASET UNSTRUCTURED_GRID
POINTS 1127 double
0.030000 0.030000 0.000000
0.970000 0.030000 0.000000
0.970000 0.230000 0.000000
0.230000 0.230000 0.000000
0.230000 0.970000 0.000000
0.030000 0.970000 0.000000
0.230000 0.720000 0.000000
0.030000 0.500000 0.000000
0.500000 0.030000 0.000000
0.600000 0.230000 0.000000
0.230000 0.845000 0.000000
0.030000 0.735000 0.000000
0.230000 0.907500 0.000000
0.105000 0.970000 0.000000
0.102390 0.832184 0.000000
0.115227 0.931871 0.000000
0.188333 0.876250 0.000000
0.230000 0.876250 0.000000
0.209167 0.891875 0.000000
0.209167 0.870174 0.000000
0.186114 0.829888 0.000000
0.223254 0.860625 0.000000
0.203515 0.846669 0.000000
0.195216 0.861096 0.000000
0.162292 0.855282 0.000000
0.178007 0.862420 0.000000
0.162292 0.884924 0.000000
0.176541 0.844778 0.000000
0.141215 0.811545 0.000000
0.161962 0.824883 0.000000
0.230000 0.891875 0.000000
0.143334 0.925225 0.000000
0.123718 0.825468 0.000000
0.193378 0.814753 0.000000
0.184297 0.903333 0.000000
0.211380 0.910625 0.000000
0.146035 0.826852 0.000000
0.230000 0.782500 0.000000
0.193635 0.890883 0.000000
0.176593 0.815057 0.000000
0.159965 0.802612 0.000000
0.126527 0.756569 0.000000
0.164965 0.778788 0.000000
0.230000 0.813750 0.000000
0.184579 0.792498 0.000000
0.170115 0.792306 0.000000
0.230000 0.751250 0.000000
0.209089 0.795674 0.000000
0.185897 0.769728 0.000000
0.230000 0.798125 0.000000
0.211677 0.813814 0.000000
0.220893 0.829375 0.000000
0.203496 0.829168 0.000000
0.195955 0.800867 0.000000
0.161092 0.741131 0.000000
0.104785 0.717084 0.000000
0.178784 0.750841 0.000000
0.162223 0.760043 0.000000
0.230000 0.597500 0.000000
0.143000 0.772428 0.000000
0.145029 0.751581 0.000000
0.189053 0.732131 0.000000
0.143429 0.792047 0.000000
0.124909 0.703086 0.000000
0.170131 0.721279 0.000000
0.208216 0.721642 0.000000
0.222946 0.735625 0.000000
0.139469 0.725466 0.000000
0.230000 0.475000 0.000000
0.132165 0.740671 0.000000
0.086519 0.733431 0.000000
0.108670 0.741287 0.000000
0.155224 0.726476 0.000000
0.148787 0.703477 0.000000
0.208243 0.744440 0.000000
0.030000 0.852500 0.000000
0.230000 0.658750 0.000000
0.195208 0.755438 0.000000
0.207584 0.773681 0.000000
0.192854 0.716327 0.000000
0.197961 0.785387 0.000000
0.230000 0.689375 0.000000
0.191983 0.700095 0.000000
0.217892 0.704688 0.000000
0.121965 0.777792 0.000000
0.120998 0.725949 0.000000
0.136716 0.711331 0.000000
0.067920 0.783264 0.000000
0.215557 0.759232 0.000000
0.085933 0.770242 0.000000
0.106194 0.763301 0.000000
0.090974 0.751912 0.000000
0.084549 0.787951 0.000000
0.074308 0.746152 0.000000
0.116722 0.614066 0.000000
0.133208 0.853049 0.000000
0.104700 0.802297 0.000000
0.124760 0.799802 0.000000
0.101502 0.782648 0.000000
0.116130 0.812305 0.000000
0.100117 0.730246 0.000000
0.137357 0.672227 0.000000
0.111208 0.672339 0.000000
0.117524 0.843022 0.000000
0.098355 0.890286 0.000000
0.112326 0.868433 0.000000
0.134186 0.837289 0.000000
0.150088 0.843397 0.000000
0.163581 0.838986 0.000000
0.137065 0.690049 0.000000
0.120690 0.639300 0.000000
0.070008 0.729802 0.000000
0.089541 0.632584 0.000000
0.101042 0.648247 0.000000
0.108414 0.627955 0.000000
0.136442 0.879304 0.000000
0.074141 0.859413 0.000000
0.030000 0.617500 0.000000
0.129273 0.624956 0.000000
0.181172 0.654959 0.000000
0.158178 0.660837 0.000000
0.158414 0.683243 0.000000
0.119366 0.656800 0.000000
0.127441 0.867086 0.000000
0.118202 0.887582 0.000000
0.167500 0.970000 0.000000
0.133770 0.897651 0.000000
0.151768 0.899663 0.000000
0.111034 0.918149 0.000000
0.168173 0.900250 0.000000
0.118733 0.903831 0.000000
0.192185 0.937154 0.000000
0.158715 0.935037 0.000000
0.159377 0.916537 0.000000
0.091654 0.870609 0.000000
0.051864 0.857276 0.000000
0.092423 0.850112 0.000000
0.030000 0.911250 0.000000
0.066913 0.890014 0.000000
0.066666 0.821099 0.000000
0.084099 0.833750 0.000000
0.068710 0.842542 0.000000
0.030000 0.793750 0.000000
0.030000 0.823125 0.000000
0.100172 0.816980 0.000000
0.163878 0.635221 0.000000
0.071627 0.800138 0.000000
0.049431 0.805952 0.000000
0.082780 0.813846 0.000000
0.173250 0.671883 0.000000
0.200318 0.674236 0.000000
0.175767 0.690537 0.000000
0.212150 0.687704 0.000000
0.217533 0.671043 0.000000
0.230000 0.628125 0.000000
0.177175 0.706683 0.000000
0.060125 0.767846 0.000000
0.107110 0.854129 0.000000
0.075886 0.875979 0.000000
0.030000 0.881875 0.000000
0.057866 0.874344 0.000000
0.090196 0.801344 0.000000
0.048968 0.833605 0.000000
0.044274 0.819696 0.000000
0.030000 0.837813 0.000000
0.167521 0.649474 0.000000
0.143942 0.588763 0.000000
0.187792 0.631712 0.000000
0.047375 0.890848 0.000000
0.041846 0.870388 0.000000
0.058310 0.917760 0.000000
0.030000 0.896562 0.000000
0.057653 0.902349 0.000000
0.079538 0.909135 0.000000
0.042792 0.846373 0.000000
0.147667 0.614671 0.000000
0.192029 0.645485 0.000000
0.206028 0.657019 0.000000
0.082606 0.893381 0.000000
0.067500 0.970000 0.000000
0.149819 0.629642 0.000000
0.134746 0.648347 0.000000
0.120381 0.686678 0.000000
0.092328 0.608904 0.000000
0.030000 0.676250 0.000000
0.114752 0.598001 0.000000
0.081051 0.706092 0.000000
0.051436 0.743427 0.000000
0.149241 0.562958 0.000000
0.178869 0.596962 0.000000
0.209131 0.632686 0.000000
0.074409 0.926947 0.000000
0.092728 0.922577 0.000000
0.030000 0.940625 0.000000
0.095708 0.906461 0.000000
0.107605 0.944027 0.000000
0.173402 0.616887 0.000000
0.161640 0.602947 0.000000
0.128696 0.936816 0.000000
0.126463 0.918279 0.000000
0.136250 0.970000 0.000000
0.230000 0.938750 0.000000
0.219496 0.954375 0.000000
0.179008 0.926502 0.000000
0.223050 0.923125 0.000000
0.209057 0.938707 0.000000
0.198750 0.970000 0.000000
0.181741 0.950496 0.000000
0.172490 0.939397 0.000000
0.086250 0.970000 0.000000
0.086786 0.938250 0.000000
0.070854 0.946124 0.000000
0.194888 0.917939 0.000000
0.199250 0.952821 0.000000
0.183125 0.970000 0.000000
0.100482 0.956429 0.000000
0.084683 0.954109 0.000000
0.120625 0.958450 0.000000
0.047665 0.783825 0.000000
0.146943 0.864684 0.000000
0.098003 0.690889 0.000000
0.075753 0.654763 0.000000
0.131079 0.606594 0.000000
0.100666 0.662596 0.000000
0.030000 0.764375 0.000000
0.030000 0.779062 0.000000
0.044762 0.768714 0.000000
0.089679 0.718583 0.000000
0.151022 0.646037 0.000000
0.143883 0.659430 0.000000
0.030000 0.558750 0.000000
0.109199 0.701966 0.000000
0.061730 0.617306 0.000000
0.046866 0.723573 0.000000
0.083012 0.675207 0.000000
0.056455 0.673127 0.000000
0.070197 0.668247 0.000000
0.061836 0.753482 0.000000
0.036601 0.749687 0.000000
0.090142 0.575896 0.000000
0.078733 0.619307 0.000000
0.068117 0.636268 0.000000
0.079099 0.690463 0.000000
0.064024 0.712588 0.000000
0.030000 0.705625 0.000000
0.063449 0.692242 0.000000
0.097950 0.591955 0.000000
0.045865 0.617309 0.000000
0.038231 0.573438 0.000000
0.030000 0.588125 0.000000
0.074722 0.592592 0.000000
0.030000 0.646875 0.000000
0.199465 0.610195 0.000000
0.222414 0.643437 0.000000
0.216464 0.616212 0.000000
0.204215 0.579856 0.000000
0.195478 0.593756 0.000000
0.187306 0.570753 0.000000
0.164532 0.579545 0.000000
0.230000 0.536250 0.000000
0.184310 0.542851 0.000000
0.203445 0.546245 0.000000
0.220974 0.551562 0.000000
0.048750 0.970000 0.000000
0.039375 0.955313 0.000000
0.050941 0.937594 0.000000
0.056316 0.954835 0.000000
0.038564 0.925938 0.000000
0.144578 0.950652 0.000000
0.151875 0.970000 0.000000
0.122217 0.570855 0.000000
0.110898 0.582342 0.000000
0.044825 0.688219 0.000000
0.047911 0.637446 0.000000
0.046573 0.656630 0.000000
0.030000 0.632187 0.000000
0.060805 0.650110 0.000000
0.212444 0.598343 0.000000
0.163557 0.565102 0.000000
0.137370 0.494521 0.000000
0.208210 0.563932 0.000000
0.149948 0.527464 0.000000
0.174502 0.501187 0.000000
0.165743 0.537116 0.000000
0.149945 0.545218 0.000000
0.166425 0.518250 0.000000
0.116016 0.536334 0.000000
0.134142 0.536338 0.000000
0.125076 0.552524 0.000000
0.125083 0.514606 0.000000
0.103858 0.558602 0.000000
0.150164 0.508509 0.000000
0.220466 0.582187 0.000000
0.066898 0.543376 0.000000
0.197766 0.528829 0.000000
0.083191 0.556297 0.000000
0.230000 0.566875 0.000000
0.182965 0.475579 0.000000
0.070264 0.571914 0.000000
0.090156 0.530782 0.000000
0.051050 0.562523 0.000000
0.094827 0.545766 0.000000
0.065138 0.558051 0.000000
0.106116 0.519447 0.000000
0.030000 0.382500 0.000000
0.108939 0.490929 0.000000
0.086272 0.508410 0.000000
0.112709 0.505701 0.000000
0.070707 0.522636 0.000000
0.030000 0.470625 0.000000
0.030000 0.529375 0.000000
0.045581 0.498154 0.000000
0.091011 0.491119 0.000000
0.130489 0.418219 0.000000
0.174408 0.407379 0.000000
0.213717 0.533261 0.000000
0.230000 0.505625 0.000000
0.210779 0.512915 0.000000
0.184515 0.516370 0.000000
0.191818 0.556156 0.000000
0.171427 0.551638 0.000000
0.230000 0.520937 0.000000
0.213200 0.490312 0.000000
0.194697 0.498762 0.000000
0.198378 0.482339 0.000000
0.059974 0.491908 0.000000
0.197913 0.462447 0.000000
0.230000 0.352500 0.000000
0.175982 0.452556 0.000000
0.230000 0.444375 0.000000
0.230000 0.413750 0.000000
0.212654 0.472054 0.000000
0.214117 0.453696 0.000000
0.178741 0.582458 0.000000
0.230000 0.490312 0.000000
0.154586 0.471616 0.000000
0.155834 0.490477 0.000000
0.167852 0.480210 0.000000
0.193927 0.420536 0.000000
0.212157 0.432163 0.000000
0.193488 0.441329 0.000000
0.211269 0.413450 0.000000
0.230000 0.429062 0.000000
0.178231 0.430606 0.000000
0.030000 0.441250 0.000000
0.230000 0.383125 0.000000
0.030000 0.265000 0.000000
0.220877 0.398437 0.000000
0.124470 0.452292 0.000000
0.140723 0.439142 0.000000
0.054512 0.511054 0.000000
0.152906 0.326874 0.000000
0.074897 0.468126 0.000000
0.157267 0.453086 0.000000
0.167469 0.384885 0.000000
0.143665 0.460577 0.000000
0.133552 0.476257 0.000000
0.123772 0.487833 0.000000
0.116386 0.471573 0.000000
0.207436 0.375905 0.000000
0.075611 0.496194 0.000000
0.097112 0.452157 0.000000
0.097173 0.401933 0.000000
0.159263 0.433932 0.000000
0.207997 0.390846 0.000000
0.188286 0.384104 0.000000
[...]
POINT_DATA 1127
SCALARS field double
LOOKUP_TABLE default
 0.000000
 0.000000
 0.000000
 0.000000
 0.000000
 0.000000
 0.000000
 0.000000
 0.000000
 0.000000
 0.000000
 0.000000
 0.000000
 0.000000
 0.072390
 0.038129
 0.041667
 0.000000
 0.020833
 0.020833
 0.043886
 0.006746
 0.026485
 0.034784
 0.067708
 0.051993
 0.067708
 0.053459
 0.088785
 0.068038
 0.000000
 0.044775
 0.093718
 0.036622
 0.045703
 0.018620
 0.083965
 0.000000
 0.036365
 0.053407
 0.070035
 0.096527
 0.065035
 0.000000
 0.045421
 0.059885
 0.000000
 0.020911
 0.044103
 0.000000
 0.018323
 0.009107
 0.026504
 0.034045
 0.068908
 0.074785
 0.051216
 0.067777
 0.000000
 0.087000
 0.084971
 0.040947
 0.086571
 0.094909
 0.059869
 0.021784
 0.007054
 0.090531
 0.000000
 0.097835
 0.056519
 0.078670
 0.074776
 0.081213
 0.021757
 0.000000
 0.000000
 0.034792
 0.022416
 0.037146
 0.032039
 0.000000
 0.038017
 0.012108
 0.091965
 0.090998
 0.093284
 0.037920
 0.014443
 0.055933
 0.076194
 0.060974
 0.054549
 0.044308
 0.086722
 0.096792
 0.074700
 0.094760
 0.071502
 0.086130
 0.070117
 0.092643
 0.081208
 0.087524
 0.068355
 0.082326
 0.095814
 0.079912
 0.066419
 0.092935
 0.090690
 0.040008
 0.059541
 0.071042
 0.078414
 0.090696
 0.044141
 0.000000
 0.099273
 0.048828
 0.071822
 0.071586
 0.089366
 0.097441
 0.082418
 0.000000
 0.072349
 0.070337
 0.051851
 0.061827
 0.066169
 0.032846
 0.034963
 0.053463
 0.061654
 0.021864
 0.062423
 0.000000
 0.036913
 0.036666
 0.054099
 0.038710
 0.000000
 0.000000
 0.070172
 0.066122
 0.041627
 0.019431
 0.052780
 0.056750
 0.029682
 0.054233
 0.017850
 0.012467
 0.000000
 0.052825
 0.030125
 0.077110
 0.045886
 0.000000
 0.027866
 0.060196
 0.018968
 0.014274
 0.000000
 0.062479
 0.086058
 0.042208
 0.017375
 0.011846
 0.028310
 0.000000
 0.027653
 0.049538
 0.012792
 0.082333
 0.037971
 0.023972
 0.052606
 0.000000
 0.080181
 0.095254
 0.090381
 0.062328
 0.000000
 0.084752
 0.051051
 0.021436
 0.080759
 0.051131
 0.020869
 0.043053
 0.047423
 0.000000
 0.063539
 0.025973
 0.056598
 0.068360
 0.033184
 0.051721
 0.000000
 0.000000
 0.010504
 0.043498
 0.006950
 0.020943
 0.000000
 0.019504
 0.030603
 0.000000
 0.031750
 0.023876
 0.035112
 0.017179
 0.000000
 0.013571
 0.015891
 0.011550
 0.017665
 0.083057
 0.068003
 0.045753
 0.098921
 0.070666
 0.000000
 0.000000
 0.014762
 0.059679
 0.078978
 0.086117
 0.000000
 0.079199
 0.031730
 0.016866
 0.053012
 0.026455
 0.040197
 0.031836
 0.006601
 0.060142
 0.048733
 0.038117
 0.049099
 0.034024
 0.000000
 0.033449
 0.067950
 0.015865
 0.008231
 0.000000
 0.044722
 0.000000
 0.030535
 0.007586
 0.013536
 0.025785
 0.034522
 0.042694
 0.065468
 0.000000
 0.045690
 0.026555
 0.009026
 0.000000
 0.009375
 0.020941
 0.015165
 0.008564
 0.019348
 0.000000
 0.092217
 0.080898
 0.014825
 0.017911
 0.016573
 0.000000
 0.030805
 0.017556
 0.066443
 0.092630
 0.021790
 0.080052
 0.055498
 0.064257
 0.080055
 0.063575
 0.086016
 0.095858
 0.095076
 0.095083
 0.073858
 0.079836
 0.009534
 0.036898
 0.032234
 0.053191
 0.000000
 0.047035
 0.040264
 0.060156
 0.021050
 0.064827
 0.035138
 0.076116
 0.000000
 0.078939
 0.056272
 0.082709
 0.040707
 0.000000
 0.000000
 0.015581
 0.061011
 0.099511
 0.055592
 0.016283
 0.000000
 0.019221
 0.045485
 0.038182
 0.058573
 0.000000
 0.016800
 0.035303
 0.031622
 0.029974
 0.032087
 0.000000
 0.054018
 0.000000
 0.000000
 0.017346
 0.015883
 0.051259
 0.000000
 0.075414
 0.074166
 0.062148
 0.036073
 0.017843
 0.036512
 0.018731
 0.000000
 0.051769
 0.000000
 0.000000
 0.000000
 0.009123
 0.094470
 0.089277
 0.024512
 0.077094
 0.044897
 0.072733
 0.062531
 0.086335
 0.096448
 0.093772
 0.086386
 0.022564
 0.045611
 0.067112
 0.067173
 0.070737
 0.022003
 0.041714
 0.027696
 0.007537
 0.083874
 0.088537
 0.038703
 0.036826
 0.085495
 0.013496
 0.072201
 0.089939
 0.054391
 0.017326
 0.006812
 0.080763
 0.095309
 0.042229
 0.080494
 0.067951
 0.089799
 0.073477
 0.095523
 0.078198
 0.076483
 0.091540
 0.098765
 0.098966
 0.074881
 0.083186
 0.074152
 0.057550
 0.016621
 0.092181
 0.000000
 0.066517
 0.035914
 0.037045
 0.056776
 0.051458
 0.066632
 0.083688
 0.000000
 0.035382
 0.049045
 0.000000
 0.060972
 0.034147
 0.016300
 0.059582
 0.081781
 0.097684
 0.096879
 0.088743
 0.087979
 0.065716
 0.033316
 0.018133
 0.016765
 0.000000
 0.016686
 0.000000
 0.082419
 0.093955
 0.067373
 0.058182
 0.032123
 0.048349
 0.053505
 0.031721
 0.020217
 0.041996
 0.017879
 0.031149
 0.005621
 0.034749
 0.056922
 0.049075
 0.024685
 0.075869
 0.072930
 0.088835
 0.096141
 0.030836
 0.016583
 0.031536
 0.011732
 0.046897
 0.060973
 0.025015
 0.048979
 0.067496
 0.000000
 0.085735
 0.035405
 0.017685
 0.000000
 0.005659
 0.061446
 0.091322
 0.099500
 0.085684
 0.037891
 0.000000
 0.005644
 0.096612
 0.061746
 0.086738
 0.067623
 0.067449
 0.097206
 0.000000
 0.039487
 0.010297
 0.021061
 0.030182
 0.049762
 0.058361
 0.058145
 0.017006
 0.006507
 0.016269
 0.075194
 0.048186
 0.080355
 0.038187
 0.000000
 0.041077
 0.000000
 0.082742
 0.000000
 0.029688
 0.064647
 0.064902
 0.084781
 0.088155
 0.105008
 0.000000
 0.028149
 0.024932
 0.014869
 0.088439
 0.000000
 0.103737
 0.052670
 0.093997
 0.041614
 0.065536
 0.041359
 0.010054
 0.077399
 0.070332
 0.058247
 0.100383
 0.086095
 0.085637
 0.105335
 0.029401
 0.092312
 0.100618
 0.085239
 0.000000
 0.100798
 0.095935
 0.077976
 0.112686
 0.086265
 0.029920
 0.110210
 0.082049
 0.095715
 0.097502
 0.016850
 0.070773
 0.013301
 0.070243
 0.012304
 0.031446
 0.012004
 0.060030
 0.063161
 0.055857
 0.047255
 0.072941
 0.048830
 0.042946
 0.025145
 0.048175
 0.087832
 0.000000
 0.073044
 0.039062
 0.015814
 0.000000
 0.037928
 0.055389
 0.020701
 0.000000
 0.025257
 0.014386
 0.087071
 0.075101
 0.078564
 0.038780
 0.097031
 0.094400
 0.094543
 0.035140
 0.073187
 0.079735
 0.043010
 0.070544
 0.000000
 0.059629
 0.054251
 0.076396
 0.094303
 0.039042
 0.050833
 0.059526
 0.063137
 0.065710
 0.081349
 0.040199
 0.059967
 0.041844
 0.000000
 0.053410
 0.025138
 0.020391
 0.025074
 0.020944
 0.009826
 0.010578
 0.030795
 0.000000
 0.020358
 0.000000
 0.037838
 0.000000
 0.033628
 0.018895
 0.023708
 0.006714
 0.009343
 0.000000
 0.050671
 0.008066
 0.035029
 0.000000
 0.000000
 0.046059
 0.040082
 0.052751
 0.076929
 0.060510
 0.017966
 0.000000
 0.066774
 0.072403
 0.061186
 0.000000
 0.067613
 0.038536
 0.082231
 0.056386
 0.050027
 0.000000
 0.000000
 0.039709
 0.020057
 0.000000
 0.009767
 0.024705
 0.034952
 0.052707
 0.017500
 0.007253
 0.010455
 0.022561
 0.026411
 0.036893
 0.037999
 0.008582
 0.014030
 0.093067
 0.041045
 0.000000
 0.057671
 0.054765
 0.019522
 0.000000
 0.043013
 0.075794
 0.057648
 0.044078
 0.063293
 0.000000
 0.016561
 0.030132
 0.027751
 0.014215
 0.035939
 0.028436
 0.043568
 0.046328
 0.048549
 0.073710
 0.060620
 0.080704
 0.073976
 0.042996
 0.037391
 0.071948
 0.063630
 0.021702
 0.056424
 0.000000
 0.010526
 0.079013
 0.000000
 0.011194
 0.000000
 0.029328
 0.050854
 0.029883
 0.024609
 0.053596
 0.063996
 0.061232
 0.059393
 0.095562
 0.009796
 0.061154
 0.046248
 0.039063
 0.087234
 0.082912
 0.000000
 0.000000
 0.094771
 0.099566
 0.074509
 0.014962
 0.028068
 0.024017
 0.066930
 0.098973
 0.079380
 0.094785
 0.082056
 0.079013
 0.090927
 0.078972
 0.097471
 0.047105
 0.083084
 0.056175
 0.090909
 0.098751
 0.000000
 0.085380
 0.066978
 0.010268
 0.056771
 0.045442
 0.059907
 0.000000
 0.057658
 0.033039
 0.084793
 0.089806
 0.072398
 0.000000
 0.050982
 0.090654
 0.098302
 0.080420
 0.054080
 0.069686
 0.062080
 0.075620
 0.000000
 0.099377
 0.081874
 0.058375
 0.072929
 0.087882
 0.065370
 0.040486
 0.038735
 0.063793
 0.000000
 0.091039
 0.097869
 0.053077
 0.019329
 0.024522
 0.030366
 0.049589
 0.060848
 0.044266
 0.052546
 0.088566
 0.082094
 0.090418
 0.081615
 0.070312
 0.044251
 0.043221
 0.081123
 0.018904
 0.023470
 0.033782
 0.016255
 0.027663
 0.051282
 0.000000
 0.030556
 0.013884
 0.015651
 0.034678
 0.014266
 0.014523
 0.010091
 0.071543
 0.097983
 0.008494
 0.077671
 0.065621
 0.013862
 0.021219
 0.033818
 0.000000
 0.026992
 0.007247
 0.015270
 0.016490
 0.079151
 0.053804
 0.085998
 0.032700
 0.033717
 0.073938
 0.066819
 0.026556
 0.056391
 0.051304
 0.095388
 0.090872
 0.088453
 0.069799
 0.065380
 0.051310
 0.072459
 0.000000
 0.077167
 0.090695
 0.060053
 0.085223
 0.088167
 0.049352
 0.000000
 0.037191
 0.018177
 0.077216
 0.094780
 0.069482
 0.044695
 0.069961
 0.077331
 0.057377
 0.016846
 0.074286
 0.030405
 0.000000
 0.086736
 0.033665
 0.050213
 0.043546
 0.016694
 0.000000
 0.014983
 0.020308
 0.032314
 0.016573
 0.055856
 0.039224
 0.059008
 0.000000
 0.072791
 0.083436
 0.088848
 0.065653
 0.041399
 0.052506
 0.034961
 0.016941
 0.012930
 0.040125
 0.090912
 0.017138
 0.000000
 0.000000
 0.000000
 0.076045
 0.014072
 0.078628
 0.034819
 0.017597
 0.006502
 0.014542
 0.038638
 0.054961
 0.043490
 0.057691
 0.029826
 0.062554
 0.090921
 0.013348
 0.022648
 0.050688
 0.090917
 0.093606
 0.084286
 0.046844
 0.064788
 0.071695
 0.052479
 0.000000
 0.000000
 0.078440
 0.023152
 0.079984
 0.039190
 0.091021
 0.063669
 0.044760
 0.046613
 0.092622
 0.097256
 0.066231
 0.024371
 0.052348
 0.062404
 0.084354
 0.081297
 0.078084
 0.096436
 0.059827
 0.009111
 0.059060
 0.056320
 0.013404
 0.011148
 0.023359
 0.028865
 0.063721
 0.000000
 0.010402
 0.000000
 0.036773
 0.067725
 0.050472
 0.013624
 0.014101
 0.000000
 0.092917
 0.068912
 0.052947
 0.073228
 0.046151
 0.080829
 0.054211
 0.088187
 0.077457
 0.000000
 0.087616
 0.000000
 0.024756
 0.026855
 0.027323
 0.034697
 0.015799
 0.083835
 0.030218
 0.029570
 0.044696
 0.025876
 0.013259
 0.034751
 0.057447
 0.062504
 0.000000
 0.010805
 0.017311
 0.030659
 0.067779
 0.085661
 0.095908
 0.097589
 0.060359
 0.076760
 0.064429
 0.076980
 0.034003
 0.000000
 0.048112
 0.000000
 0.050865
 0.020304
 0.040652
 0.067436
 0.039835
 0.049985
 0.082435
 0.079833
 0.000000
 0.093043
 0.058665
 0.007948
 0.025699
 0.096118
 0.091748
 0.058972
 0.034723
 0.041914
 0.091617
 0.010707
 0.019805
 0.027526
 0.000000
 0.028349
 0.007793
 0.029190
 0.069337
 0.090136
 0.074701
 0.072407
 0.045442
 0.028214
 0.031455
 0.010357
 0.000000
 0.000000
 0.012713
 0.041089
 0.007511
 0.020780
 0.009472
 0.025325
 0.074147
 0.064283
 0.026514
 0.058461
 0.074624
 0.041141
 0.096592
 0.089870
 0.096123
 0.049254
 0.055186
 0.081739
 0.000000
 0.079554
 0.041544
 0.060234
 0.052435
 0.096325
 0.046070
 0.044073
 0.035361
 0.015326
 0.000000
 0.000000
 0.020027
 0.005780
 0.031734
 0.019772
 0.036108
 0.039280
 0.055418
 0.069353
 0.074950
 0.063160
 0.036338
 0.052397
 0.000000
 0.028776
 0.021152
 0.000000
 0.015715
 0.036111
 0.014137
 0.017387
 0.060593
 0.072763
 0.000000
 0.025209
 0.084719
 0.000000
 0.000000
 0.062078
 0.065330
 0.071716
 0.048198
 0.020881
 0.011277
 0.073066
 0.000000
 0.045335
 0.030407
 0.046745
 0.000000
 0.030117
 0.027491
 0.049339
 0.031889
 0.000000
 0.014349
 0.078563
 0.022684
 0.012840
 0.060895
 0.026046
 0.060138
 0.000000
 0.033095
 0.014627
 0.034661
 0.016081
 0.016740
 0.073068
 0.071765
 0.043193
 0.000000
 0.016455
 0.049629
 0.061337
 0.055004
 0.036422
 0.091215
 0.037015
 0.019323
 0.000000
 0.019092
 0.000000
 0.011023
 0.027055
 0.032806
 0.041085
 0.019113
 0.031439
 0.000000
 0.000000
 0.011667
 0.015125
 0.013938
 0.017711
 0.022300
 0.026095
 0.032767
 0.009583

