# vtk DataFile Version 2.0
Exact distance
ASCII

DATASET UNSTRUCTURED_GRID
POINTS 1258 double
-3.600000 0.000000 0.000000
-3.600000 -0.500000 0.000000
-4.200000 -0.800000 0.000000
-4.500000 -1.200000 0.000000
-4.800000 -1.400000 0.000000
-5.200000 -1.800000 0.000000
-5.600000 -2.100000 0.000000
-5.800000 -2.200000 0.000000
-6.200000 -2.400000 0.000000
-7.100000 -2.700000 0.000000
-8.000000 -2.900000 0.000000
-8.400000 -3.000000 0.000000
-8.800000 -2.900000 0.000000
-9.100000 -3.100000 0.000000
-9.000000 -3.600000 0.000000
-8.600000 -4.200000 0.000000
-8.300000 -3.900000 0.000000
-8.000000 -3.900000 0.000000
-7.500000 -3.700000 0.000000
-6.600000 -3.300000 0.000000
-5.900000 -2.900000 0.000000
-5.000000 -2.500000 0.000000
-5.800000 -3.100000 0.000000
-6.700000 -3.600000 0.000000
-7.400000 -4.000000 0.000000
-8.400000 -4.400000 0.000000
-8.800000 -4.700000 0.000000
-8.600000 -5.000000 0.000000
-8.300000 -5.300000 0.000000
-7.800000 -5.500000 0.000000
-7.500000 -5.200000 0.000000
-6.800000 -4.700000 0.000000
-6.000000 -4.200000 0.000000
-5.200000 -3.800000 0.000000
-4.600000 -3.400000 0.000000
-4.000000 -2.900000 0.000000
-3.300000 -2.500000 0.000000
-2.500000 -2.800000 0.000000
-1.600000 -3.100000 0.000000
-0.700000 -3.300000 0.000000
0.000000 -3.400000 0.000000
0.600000 -3.500000 0.000000
1.500000 -3.600000 0.000000
2.400000 -3.500000 0.000000
3.200000 -3.500000 0.000000
4.000000 -3.900000 0.000000
4.900000 -4.500000 0.000000
5.600000 -4.900000 0.000000
6.200000 -5.100000 0.000000
7.000000 -5.200000 0.000000
8.000000 -5.300000 0.000000
8.200000 -5.000000 0.000000
8.000000 -4.700000 0.000000
7.400000 -4.300000 0.000000
7.200000 -4.500000 0.000000
6.800000 -4.500000 0.000000
6.500000 -4.400000 0.000000
6.100000 -4.200000 0.000000
5.700000 -3.900000 0.000000
5.300000 -3.600000 0.000000
6.200000 -3.600000 0.000000
7.000000 -4.000000 0.000000
8.200000 -4.400000 0.000000
8.900000 -4.700000 0.000000
9.300000 -4.600000 0.000000
9.600000 -4.500000 0.000000
9.800000 -4.300000 0.000000
9.400000 -3.900000 0.000000
9.000000 -3.500000 0.000000
8.700000 -3.600000 0.000000
8.300000 -3.700000 0.000000
7.900000 -3.400000 0.000000
7.400000 -3.000000 0.000000
6.900000 -2.500000 0.000000
6.600000 -1.900000 0.000000
6.200000 -0.900000 0.000000
6.000000 -0.600000 0.000000
5.600000 -0.200000 0.000000
6.000000 -0.200000 0.000000
6.700000 -0.400000 0.000000
7.100000 -0.600000 0.000000
7.500000 -0.700000 0.000000
8.100000 -1.100000 0.000000
8.200000 -1.300000 0.000000
8.500000 -1.100000 0.000000
8.700000 -0.900000 0.000000
8.800000 -0.500000 0.000000
8.700000 -0.200000 0.000000
8.400000 0.200000 0.000000
8.000000 0.400000 0.000000
7.500000 0.500000 0.000000
7.000000 0.600000 0.000000
6.100000 0.500000 0.000000
5.800000 0.400000 0.000000
5.400000 0.200000 0.000000
5.200000 0.400000 0.000000
4.700000 0.500000 0.000000
4.300000 0.700000 0.000000
3.800000 0.900000 0.000000
3.400000 1.100000 0.000000
3.700000 1.500000 0.000000
3.800000 1.800000 0.000000
3.700000 2.100000 0.000000
3.700000 2.600000 0.000000
3.800000 3.000000 0.000000
3.900000 3.500000 0.000000
5.000000 3.800000 0.000000
6.000000 4.100000 0.000000
7.000000 4.400000 0.000000
8.300000 4.700000 0.000000
8.100000 6.000000 0.000000
7.900000 7.000000 0.000000
7.800000 8.000000 0.000000
7.600000 9.000000 0.000000
7.300000 10.000000 0.000000
7.100000 11.000000 0.000000
7.000000 11.900000 0.000000
6.000000 11.800000 0.000000
5.000000 11.600000 0.000000
4.000000 11.400000 0.000000
3.000000 11.200000 0.000000
1.600000 10.800000 0.000000
1.800000 10.000000 0.000000
2.100000 9.000000 0.000000
2.400000 8.000000 0.000000
2.700000 7.000000 0.000000
3.000000 6.000000 0.000000
3.200000 5.000000 0.000000
3.400000 4.200000 0.000000
3.500000 3.600000 0.000000
3.300000 3.500000 0.000000
2.900000 4.200000 0.000000
2.500000 4.600000 0.000000
1.900000 5.100000 0.000000
1.400000 5.600000 0.000000
1.900000 5.500000 0.000000
1.800000 5.500000 0.000000
2.200000 5.400000 0.000000
2.400000 5.900000 0.000000
2.000000 5.900000 0.000000
1.500000 5.800000 0.000000
1.900000 6.000000 0.000000
2.400000 6.200000 0.000000
2.300000 6.700000 0.000000
1.600000 6.400000 0.000000
1.000000 6.100000 0.000000
0.900000 6.400000 0.000000
1.000000 6.700000 0.000000
0.700000 6.600000 0.000000
0.500000 6.900000 0.000000
0.200000 6.700000 0.000000
0.100000 7.000000 0.000000
-0.500000 6.400000 0.000000
-0.700000 6.500000 0.000000
-0.900000 6.300000 0.000000
-1.000000 6.000000 0.000000
-1.200000 5.500000 0.000000
-1.100000 5.100000 0.000000
-0.900000 4.700000 0.000000
-0.900000 4.100000 0.000000
-1.100000 3.700000 0.000000
-1.500000 3.300000 0.000000
-2.000000 2.800000 0.000000
-2.400000 2.600000 0.000000
-2.300000 2.900000 0.000000
-2.700000 2.700000 0.000000
-2.600000 3.400000 0.000000
-3.400000 3.100000 0.000000
-3.300000 3.600000 0.000000
-3.900000 3.400000 0.000000
-3.700000 3.900000 0.000000
-4.300000 3.600000 0.000000
-4.100000 4.200000 0.000000
-4.800000 4.100000 0.000000
-4.600000 4.500000 0.000000
-5.500000 4.300000 0.000000
-6.100000 5.300000 0.000000
-6.400000 4.900000 0.000000
-6.600000 5.200000 0.000000
-6.800000 5.400000 0.000000
-6.900000 5.000000 0.000000
-7.000000 4.700000 0.000000
-6.900000 4.100000 0.000000
-7.500000 3.600000 0.000000
-8.200000 3.000000 0.000000
-8.900000 2.400000 0.000000
-9.000000 2.000000 0.000000
-9.000000 1.700000 0.000000
-8.800000 1.400000 0.000000
-8.600000 1.200000 0.000000
-8.400000 1.000000 0.000000
-8.200000 0.900000 0.000000
-8.000000 1.000000 0.000000
-7.700000 1.100000 0.000000
-7.200000 1.300000 0.000000
-6.700000 1.500000 0.000000
-6.300000 1.700000 0.000000
-5.900000 2.000000 0.000000
-5.200000 1.400000 0.000000
-4.500000 0.800000 0.000000
2.042536 5.439366 0.000000
1.921268 5.469683 0.000000
1.860634 5.484842 0.000000
1.862500 5.500000 0.000000
1.992303 5.542134 0.000000
1.853456 5.724136 0.000000
-5.450000 -2.700000 0.000000
3.550000 3.250000 0.000000
-8.200000 1.400000 0.000000
0.350000 6.050000 0.000000
4.825000 -0.175000 0.000000
7.580000 -4.680000 0.000000
8.300000 -0.700000 0.000000
-8.150000 -3.427778 0.000000
-0.253553 6.646447 0.000000
-2.819386 1.841842 0.000000
6.600000 -5.150000 0.000000
3.300000 1.800000 0.000000
-8.487500 1.850000 0.000000
-0.076036 6.222483 0.000000
-2.680053 2.259842 0.000000
-8.690000 -3.310000 0.000000
-4.166393 -2.025410 0.000000
-0.426923 5.480769 0.000000
5.800000 0.066667 0.000000
7.000000 -4.821429 0.000000
8.987037 -4.198148 0.000000
8.949418 -3.848255 0.000000
8.557774 -4.067332 0.000000
7.437500 -0.100000 0.000000
3.802174 3.958696 0.000000
2.780000 2.730000 0.000000
5.291842 -1.288772 0.000000
-8.682812 2.133203 0.000000
-8.059698 2.353987 0.000000
-3.634495 -1.397657 0.000000
-8.341506 2.159636 0.000000
-7.917078 1.845701 0.000000
-4.418536 -1.647196 0.000000
-0.816121 5.383470 0.000000
7.500000 -5.250000 0.000000
7.359659 -0.411364 0.000000
7.826705 -0.362713 0.000000
7.033984 -0.164533 0.000000
3.114612 3.064612 0.000000
5.709842 -1.010106 0.000000
-0.513350 4.999430 0.000000
-0.701805 5.753250 0.000000
7.178619 0.224918 0.000000
6.550000 0.550000 0.000000
3.442650 2.876838 0.000000
-0.306156 5.877492 0.000000
-0.634258 6.087033 0.000000
6.735110 -0.095207 0.000000
6.350000 -0.300000 0.000000
3.201840 2.394943 0.000000
0.137052 5.525832 0.000000
3.139297 2.727312 0.000000
-0.153810 5.614374 0.000000
6.279902 0.117157 0.000000
-8.125000 -4.825000 0.000000
-8.680000 -3.820000 0.000000
-5.876923 -2.546154 0.000000
-5.223529 -2.185294 0.000000
-5.466773 -2.385443 0.000000
-4.721362 -2.065352 0.000000
-6.764286 2.735714 0.000000
-4.625472 2.449057 0.000000
-3.923607 3.788197 0.000000
-5.088094 4.391535 0.000000
5.638372 -4.398837 0.000000
1.604545 6.090909 0.000000
3.061228 -0.077544 0.000000
5.213934 -0.143033 0.000000
4.996281 0.123077 0.000000
5.066282 -0.728591 0.000000
5.040146 -0.410606 0.000000
4.587540 -0.607873 0.000000
4.232143 0.064286 0.000000
-7.834945 -3.587636 0.000000
-7.550000 -2.800000 0.000000
6.102539 -4.655273 0.000000
6.541279 -4.776163 0.000000
0.229382 6.364473 0.000000
-3.305997 2.452006 0.000000
-1.674937 1.692581 0.000000
-8.402437 -3.288365 0.000000
-8.437065 -3.608560 0.000000
7.600000 -4.200000 0.000000
8.550000 -4.550000 0.000000
3.450000 3.900000 0.000000
4.450000 3.650000 0.000000
4.021739 4.780435 0.000000
0.077544 3.361228 0.000000
-8.550000 2.700000 0.000000
-7.468885 2.737923 0.000000
-7.810989 2.617814 0.000000
-7.464016 2.176795 0.000000
-7.748623 2.309880 0.000000
7.895714 -0.756428 0.000000
8.252502 -0.223123 0.000000
7.815812 0.040806 0.000000
7.544123 0.192149 0.000000
2.576546 3.550883 0.000000
-0.816622 4.991689 0.000000
-0.358406 4.400000 0.000000
7.775332 -4.998029 0.000000
-0.118866 5.177027 0.000000
0.040739 5.898520 0.000000
-7.878125 -5.121875 0.000000
-7.900000 -4.200000 0.000000
-7.815485 -4.818700 0.000000
-4.451304 -1.942196 0.000000
-4.743433 -1.730637 0.000000
-6.415207 2.270276 0.000000
-4.353221 2.993559 0.000000
5.812186 -4.167085 0.000000
3.339894 0.479789 0.000000
4.691567 -1.204975 0.000000
4.449726 -0.250705 0.000000
3.709966 -0.529058 0.000000
4.148423 -0.572135 0.000000
4.384738 0.369476 0.000000
4.583035 0.079583 0.000000
5.900000 -5.000000 0.000000
-3.055403 2.152737 0.000000
-2.964950 2.483029 0.000000
-3.000000 3.250000 0.000000
-3.948861 1.659151 0.000000
-2.650000 3.050000 0.000000
-3.166002 2.803130 0.000000
-3.370821 1.668252 0.000000
-3.126232 1.853932 0.000000
-2.989664 1.420105 0.000000
-1.955781 2.211562 0.000000
8.201692 -4.043099 0.000000
7.900000 -4.300000 0.000000
8.717987 -4.311309 0.000000
4.117414 3.786148 0.000000
4.533353 4.327918 0.000000
4.139116 4.200038 0.000000
4.422692 3.997441 0.000000
4.768370 4.065456 0.000000
5.500000 3.950000 0.000000
4.949994 4.464540 0.000000
4.251613 4.524856 0.000000
4.654684 5.118554 0.000000
4.379917 4.871423 0.000000
4.729758 4.758774 0.000000
4.016414 5.551885 0.000000
5.502695 5.107783 0.000000
4.114232 5.166817 0.000000
5.077494 5.019058 0.000000
4.411663 5.447332 0.000000
3.627079 5.248024 0.000000
[...]
POINT_DATA 1258
SCALARS field double
LOOKUP_TABLE default
 0.000000
 0.000000
 0.000000
 0.000000
 0.000000
 0.000000
 0.000000
 0.000000
 0.000000
 0.000000
 0.000000
 0.000000
 0.000000
 0.000000
 0.000000
 0.000000
 0.000000
 0.000000
 0.000000
 0.000000
 0.000000
 0.000000
 0.000000
 0.000000
 0.000000
 0.000000
 0.000000
 0.000000
 0.000000
 0.000000
 0.000000
 0.000000
 0.000000
 0.000000
 0.000000
 0.000000
 0.000000
 0.000000
 0.000000
 0.000000
 0.000000
 0.000000
 0.000000
 0.000000
 0.000000
 0.000000
 0.000000
 0.000000
 0.000000
 0.000000
 0.000000
 0.000000
 0.000000
 0.000000
 0.000000
 0.000000
 0.000000
 0.000000
 0.000000
 0.000000
 0.000000
 0.000000
 0.000000
 0.000000
 0.000000
 0.000000
 0.000000
 0.000000
 0.000000
 0.000000
 0.000000
 0.000000
 0.000000
 0.000000
 0.000000
 0.000000
 0.000000
 0.000000
 0.000000
 0.000000
 0.000000
 0.000000
 0.000000
 0.000000
 0.000000
 0.000000
 0.000000
 0.000000
 0.000000
 0.000000
 0.000000
 0.000000
 0.000000
 0.000000
 0.000000
 0.000000
 0.000000
 0.000000
 0.000000
 0.000000
 0.000000
 0.000000
 0.000000
 0.000000
 0.000000
 0.000000
 0.000000
 0.000000
 0.000000
 0.000000
 0.000000
 0.000000
 0.000000
 0.000000
 0.000000
 0.000000
 0.000000
 0.000000
 0.000000
 0.000000
 0.000000
 0.000000
 0.000000
 0.000000
 0.000000
 0.000000
 0.000000
 0.000000
 0.000000
 0.000000
 0.000000
 0.000000
 0.000000
 0.000000
 0.000000
 0.000000
 0.000000
 0.000000
 0.000000
 0.000000
 0.000000
 0.000000
 0.000000
 0.000000
 0.000000
 0.000000
 0.000000
 0.000000
 0.000000
 0.000000
 0.000000
 0.000000
 0.000000
 0.000000
 0.000000
 0.000000
 0.000000
 0.000000
 0.000000
 0.000000
 0.000000
 0.000000
 0.000000
 0.000000
 0.000000
 0.000000
 0.000000
 0.000000
 0.000000
 0.000000
 0.000000
 0.000000
 0.000000
 0.000000
 0.000000
 0.000000
 0.000000
 0.000000
 0.000000
 0.000000
 0.000000
 0.000000
 0.000000
 0.000000
 0.000000
 0.000000
 0.000000
 0.000000
 0.000000
 0.000000
 0.000000
 0.000000
 0.000000
 0.000000
 0.000000
 0.000000
 0.000000
 0.000000
 0.000000
 0.000000
 0.000000
 0.000000
 0.000000
 0.000000
 0.087516
 0.143709
 0.000000
 0.294174
 0.424264
 0.632456
 0.637377
 0.216333
 0.424264
 0.472222
 0.000000
 0.866422
 0.000000
 0.474342
 0.509631
 0.425311
 0.440610
 0.360854
 0.841911
 0.724926
 0.266667
 0.321429
 0.465758
 0.282020
 0.418883
 0.566927
 0.357032
 0.929139
 0.971285
 0.275411
 0.581797
 0.787462
 0.545961
 0.772987
 0.417278
 0.344154
 0.000000
 0.245981
 0.461863
 0.359970
 0.473213
 0.468912
 0.479740
 0.368508
 0.332768
 0.000000
 0.316809
 0.557306
 0.319451
 0.302712
 0.000000
 0.498160
 1.036507
 0.574975
 0.858520
 0.381849
 0.459619
 0.144222
 0.275208
 0.294118
 0.294258
 0.516292
 1.107143
 1.170401
 0.000000
 0.000000
 0.436047
 0.213443
 1.204730
 0.390246
 0.311498
 0.751175
 0.598157
 1.091529
 0.598947
 0.228723
 0.000000
 0.391085
 0.343806
 0.336811
 0.654777
 1.135878
 0.288375
 0.322062
 0.000000
 0.000000
 0.000000
 0.000000
 0.743952
 1.204730
 0.000000
 0.674787
 0.543342
 0.912137
 0.817730
 0.172552
 0.371872
 0.388341
 0.293220
 0.602889
 0.205022
 0.541594
 0.278117
 0.912001
 0.736960
 0.322065
 0.000000
 0.494895
 0.629956
 0.273795
 0.525346
 0.608772
 0.146357
 0.581614
 1.352983
 0.791325
 1.360285
 1.205619
 0.257733
 0.436384
 0.000000
 0.652540
 0.342454
 0.000000
 1.010992
 0.000000
 0.360130
 1.230652
 0.947367
 1.312264
 0.546090
 0.339121
 0.000000
 0.285565
 0.218859
 0.632099
 0.612456
 0.342384
 0.317048
 0.000000
 0.650883
 0.896229
 1.362172
 1.113503
 0.995992
 0.908793
 1.108180
 0.927395
 1.145378
 1.275862
 0.467427
 1.749729
 1.591135
 1.543245
 0.581614
 0.251221
 0.374587
 0.517004
 0.278872
 0.249499
 0.697695
 0.335280
 0.139268
 0.740574
 1.425619
 1.011452
 1.179856
 1.043956
 0.443728
 0.203188
 0.361882
 0.327262
 0.247823
 1.072953
 0.977745
 0.633969
 0.321769
 0.346664
 2.063888
 1.472683
 0.618565
 1.218714
 0.227265
 0.688621
 0.715010
 0.000000
 0.000000
 1.416500
 1.778159
 1.511365
 0.247823
 0.433824
 0.904033
 0.667115
 0.554727
 0.795224
 0.358422
 0.350633
 0.000000
 0.301444
 0.746159
 0.623778
 0.366244
 1.389411
 0.000000
 0.107314
 0.981772
 1.153508
 1.144021
 1.064434
 1.925680
 1.005174
 1.598417
 0.651367
 1.401085
 1.443869
 1.100467
 1.552643
 1.684586
 1.357350
 1.386152
 1.115934
 0.000000
 0.791259
 0.375493
 0.893180
 1.262070
 2.285693
 0.987833
 1.866939
 1.556081
 1.806543
 1.776016
 1.056829
 1.102751
 1.342843
 0.350247
 0.847369
 0.860647
 0.374639
 0.364719
 0.538374
 0.000000
 0.345250
 0.799698
 0.666006
 0.371976
 0.455254
 2.329637
 0.893172
 1.009512
 0.998975
 1.105089
 0.767621
 1.266200
 0.000000
 0.335220
 0.330914
 0.489392
 0.684144
 0.304670
 0.000000
 0.912827
 2.173279
 1.239900
 1.660518
 1.021609
 0.881736
 0.000000
 0.415553
 1.705703
 1.177977
 1.577121
 1.051705
 0.529118
 1.140327
 0.704207
 0.976627
 0.772855
 1.339805
 0.000000
 1.204465
 1.738284
 1.155309
 1.156978
 0.173940
 0.460663
 0.404312
 1.997549
 0.561511
 0.639385
 1.781216
 1.905381
 2.328912
 0.603956
 0.425031
 0.129484
 1.480237
 1.745739
 1.693996
 0.342882
 0.876344
 0.622635
 0.177418
 0.565078
 1.855343
 1.832348
 2.187924
 2.147034
 1.614754
 0.712830
 0.571467
 0.342091
 0.731449
 0.807640
 1.064515
 0.970912
 1.485942
 1.856308
 1.525570
 2.049945
 1.809961
 2.161644
 2.154112
 2.065183
 1.300800
 1.608031
 1.395918
 1.148014
 1.077581
 2.050935
 2.016260
 1.302258
 0.308719
 0.000000
 0.353264
 0.688109
 0.562776
 0.364842
 1.006465
 1.682546
 0.701721
 0.326387
 0.953315
 1.111839
 0.932228
 1.462950
 1.317604
 1.650946
 1.392664
 1.905436
 1.343970
 0.923286
 0.828936
 1.292335
 0.955639
 0.986587
 2.006091
 2.205817
 1.122410
 0.988075
 1.603692
 0.781180
 1.238209
 1.028026
 1.800270
 1.617739
 2.755706
 2.482016
 2.136137
 2.181145
 2.453464
 1.921527
 2.518027
 0.700502
 1.231319
 1.431056
 1.341346
 1.684064
 0.985482
 0.465189
 0.713150
 0.360947
 0.175428
 0.951664
 0.602490
 0.000000
 0.356351
 0.423524
 0.272018
 0.789754
 0.897240
 1.367160
 1.435566
 1.635561
 0.766282
 0.474065
 0.153821
 0.356642
 1.032645
 1.266417
 1.525543
 1.283553
 1.126995
 1.447886
 0.000000
 0.618426
 0.715263
 1.260595
 1.277667
 1.663634
 1.471118
 1.355136
 1.188993
 1.486535
 0.500759
 0.438722
 1.097600
 1.612473
 0.678329
 0.730775
 0.451568
 0.255033
 1.990110
 0.703249
 0.994080
 1.102638
 0.181231
 1.690309
 1.948554
 2.134130
 2.216286
 0.996549
 0.514810
 0.561841
 0.312242
 0.257688
 0.000000
 0.287325
 0.000000
 0.319902
 0.000000
 0.168100
 0.000000
 0.164665
 0.250000
 0.646252
 0.461663
 0.335939
 0.583412
 1.591008
 0.904738
 1.511776
 1.228180
 0.300643
 0.290559
 0.644489
 0.303292
 0.652038
 0.295787
 0.302339
 0.325852
 0.673809
 0.579140
 0.238500
 0.549597
 0.433023
 0.000000
 0.231377
 0.352361
 0.000000
 0.384494
 0.260026
 0.194945
 0.322519
 0.286714
 0.205089
 1.169333
 0.501891
 0.378320
 0.983628
 0.715485
 1.119689
 0.858925
 0.263361
 0.435798
 0.237322
 0.345766
 0.306166
 0.000000
 0.586281
 0.264140
 0.267136
 0.269187
 0.855705
 0.745635
 0.790702
 0.783996
 0.399461
 0.887724
 0.520479
 0.750739
 1.527147
 1.437887
 1.124868
 2.493120
 2.000717
 1.742427
 1.664668
 1.434855
 1.436184
 0.000000
 1.090906
 2.078027
 1.726486
 1.880781
 2.159795
 1.457604
 1.989680
 1.449486
 1.688044
 1.065733
 1.177071
 0.891076
 0.901912
 0.910347
 1.951578
 0.228316
 0.287823
 2.290199
 1.009579
 0.790709
 1.162481
 2.526767
 2.712172
 0.449355
 0.000000
 0.768029
 0.382069
 0.000000
 0.567985
 0.234476
 0.834227
 1.311630
 2.013229
 0.734085
 0.394877
 0.702836
 1.070559
 0.900842
 0.000000
 0.000000
 0.382062
 0.686382
 0.374264
 0.387595
 0.350369
 0.000000
 0.364823
 0.200281
 0.377915
 0.374313
 0.284680
 0.665201
 0.574974
 1.618512
 0.567206
 0.256499
 0.566265
 0.000000
 0.000000
 0.368998
 1.158337
 0.781928
 0.902214
 0.682520
 0.609190
 0.935752
 1.678438
 1.117596
 0.338043
 0.250038
 0.392310
 0.324424
 0.000000
 0.560172
 0.350328
 0.705209
 0.369848
 0.316203
 0.599602
 0.461183
 0.182995
 0.000000
 0.245867
 0.222611
 0.000000
 0.417307
 0.816244
 0.379000
 0.332686
 0.000000
 0.272444
 0.245075
 0.185871
 0.000000
 0.290690
 0.000000
 0.198810
 0.144345
 0.865870
 0.286589
 0.816842
 0.684687
 0.891893
 0.868623
 0.434442
 0.390409
 0.193403
 0.600131
 0.320931
 0.683165
 0.915499
 0.716257
 0.860135
 1.101531
 0.275457
 1.056811
 0.607972
 0.555752
 1.039879
 0.860028
 0.566483
 0.728308
 0.000000
 0.868504
 0.646845
 0.315065
 0.000000
 0.310453
 0.293759
 0.326383
 0.427922
 0.000000
 0.523374
 1.292516
 1.140538
 0.000000
 0.307707
 0.228240
 0.609036
 0.671292
 1.788360
 2.155889
 1.839920
 2.186240
 2.179635
 1.921393
 2.911170
 1.739148
 2.522947
 2.448959
 2.715404
 2.721478
 2.486930
 2.740045
 3.035913
 2.420008
 2.677508
 2.255405
 3.209398
 3.048114
 2.625787
 2.145479
 2.514213
 2.006883
 1.354104
 2.874077
 2.659328
 2.664645
 3.131007
 3.190122
 3.013606
 2.850634
 3.321604
 2.683624
 3.057783
 2.977647
 2.635053
 2.937216
 3.017356
 2.394854
 2.278142
 1.796058
 2.046146
 2.409562
 1.755999
 1.561166
 1.892107
 2.887392
 2.218633
 2.169220
 1.568954
 1.559380
 1.330970
 1.429238
 1.099257
 1.887433
 2.186909
 2.506477
 2.205439
 1.921826
 1.913631
 2.460904
 1.058857
 1.242801
 1.537692
 1.614273
 1.239566
 2.644615
 2.617414
 1.986130
 1.299468
 0.655080
 1.009546
 0.951108
 0.883583
 0.444945
 1.308039
 2.303073
 2.327193
 1.996642
 2.295967
 2.366448
 2.165785
 1.769335
 1.332802
 2.042168
 2.884284
 1.805984
 0.000000
 0.394616
 0.771614
 0.228870
 0.391420
 0.000000
 0.738454
 0.149099
 0.535583
 0.305540
 1.370640
 1.583805
 1.087755
 0.310117
 0.548429
 0.612773
 0.000000
 0.254195
 1.931498
 1.459284
 2.285979
 2.459635
 1.665434
 1.704075
 1.411548
 1.352573
 1.158789
 2.097198
 2.067903
 1.026676
 1.313503
 1.702754
 2.373479
 2.381035
 1.822168
 0.235079
 0.552027
 0.868270
 1.245363
 0.610484
 0.708949
 0.357871
 0.251571
 1.635053
 2.417266
 2.672853
 2.495788
 1.603062
 1.795876
 1.906202
 2.366081
 0.986423
 0.864280
 1.216628
 0.630633
 0.632317
 0.308162
 1.900130
 0.237984
 0.283781
 0.452748
 1.010509
 0.755214
 0.000000
 0.875475
 0.363586
 0.262504
 0.391619
 0.383902
 0.364729
 0.198341
 0.282662
 0.405681
 0.356980
 1.075165
 0.933395
 0.660727
 1.525131
 1.286348
 1.751479
 1.023299
 0.979490
 0.823675
 1.334321
 0.307254
 0.555101
 0.551794
 0.000000
 0.425655
 0.792311
 0.694466
 0.297504
 0.000000
 0.929022
 0.912110
 1.165854
 0.640200
 2.035398
 2.007975
 2.895564
 2.502574
 1.844484
 1.538055
 1.533692
 0.641611
 1.574059
 1.451104
 1.889580
 1.894502
 2.200880
 0.695963
 1.114465
 0.158958
 1.350531
 0.271640
 0.593719
 0.322941
 0.000000
 0.408862
 0.547481
 0.000000
 0.426503
 0.994168
 1.270824
 0.287960
 0.000000
 0.547193
 0.292550
 0.304412
 0.630279
 1.347510
 1.312854
 0.950918
 0.707563
 0.741621
 0.360764
 1.062600
 0.000000
 1.003543
 1.406475
 0.554485
 2.324075
 1.029993
 2.024273
 1.835002
 1.676906
 1.763726
 2.150549
 2.541077
 2.550508
 2.350537
 2.253171
 1.863272
 1.918918
 1.988996
 2.055985
 1.646118
 1.333056
 1.334968
 0.353234
 2.485707
 0.865556
 2.412570
 1.632355
 1.197629
 0.283829
 0.000000
 1.545361
 0.665410
 0.250413
 0.372712
 0.334017
 0.000000
 0.727028
 0.599675
 0.726533
 0.362555
 1.072111
 0.986748
 0.464880
 1.148044
 1.309803
 1.638032
 1.788489
 2.050417
 0.182709
 0.000000
 0.774381
 1.462390
 1.450946
 2.238586
 0.000000
 0.670243
 0.393940
 0.376313
 0.909160
 0.000000
 1.073613
 0.830844
 0.723620
 1.744514
 2.547001
 2.196502
 0.298070
 0.228946
 0.533478
 0.487543
 2.201969
 0.348171
 0.216317
 0.326572
 0.746882
 1.205822
 0.830958
 0.666831
 0.000000
 1.270253
 0.969585
 2.079498
 0.206942
 1.416159
 1.069384
 2.516678
 2.424754
 1.897936
 2.308291
 2.587148
 1.637537
 1.939024
 1.504369
 1.432418
 2.041181
 1.287200
 1.622825
 1.823574
 2.120550
 2.343442
 1.830751
 1.999397
 2.231720
 1.771342
 1.923449
 2.014491
 0.909859
 2.105412
 1.422024
 1.710234
 1.587423
 1.217692
 1.497542
 0.687341
 0.890463
 1.096437
 0.000000
 0.822990
 1.010454
 1.301475
 1.122177
 1.544372
 1.187745
 1.026516
 1.022853
 1.689579
 0.000000
 1.464940
 0.535303
 1.468518
 1.176474
 0.845129
 0.647468
 0.466393
 0.325034
 0.353064
 0.000000
 0.271008
 0.375510
 0.518178
 1.073467
 1.467884
 0.892833
 0.168892
 0.000000
 0.476452
 0.245381
 0.233188
 0.598271
 1.133498
 1.137353
 0.778241
 0.738577
 0.874568
 0.441150
 0.622030
 0.000000
 0.311015
 0.000000
 0.323294
 0.000000
 0.383171
 0.627465
 0.289458
 0.000000
 0.333232
 1.937222
 0.817831
 1.754368
 2.034437
 2.295634
 2.011899
 0.355520
 0.168682
 0.473741
 0.128379
 0.145997

