# vtk DataFile Version 2.0
Exact distance
ASCII

DATASET UNSTRUCTURED_GRID
POINTS 338 double
-1.000000 1.000000 0.000000
-1.000000 -1.000000 0.000000
1.000000 -1.000000 0.000000
1.000000 1.000000 0.000000
0.000000 0.000000 0.000000
-1.000000 0.000000 0.000000
-0.684124 0.194280 0.000000
-0.500000 0.000000 0.000000
-0.431368 -0.062500 0.000000
-0.628361 -0.450917 0.000000
-0.625000 -0.125000 0.000000
-0.500000 -0.125000 0.000000
0.000000 -1.000000 0.000000
-1.000000 -0.500000 0.000000
-0.575723 -0.299652 0.000000
-1.000000 -0.250000 0.000000
-0.238724 -0.137813 0.000000
-0.816672 -0.456592 0.000000
-0.557991 0.423736 0.000000
-0.723427 -0.423571 0.000000
-0.869499 0.030748 0.000000
-0.500000 -1.000000 0.000000
-0.595808 -0.029192 0.000000
-0.480753 -0.230832 0.000000
-0.139281 -0.034403 0.000000
-0.609245 0.070059 0.000000
-1.000000 0.375000 0.000000
-0.384401 -0.183008 0.000000
-0.666759 -0.342491 0.000000
-0.599763 0.297303 0.000000
-0.390753 0.051033 0.000000
-0.774665 0.526062 0.000000
-0.494566 0.130817 0.000000
-0.482863 -0.338379 0.000000
-0.647451 -0.229098 0.000000
-0.821416 -0.294742 0.000000
-1.000000 -0.125000 0.000000
-0.729492 -0.156934 0.000000
-0.738623 0.059865 0.000000
-0.762258 -0.049723 0.000000
-1.000000 0.500000 0.000000
-0.275645 0.010177 0.000000
-0.774172 0.408727 0.000000
-0.223140 0.340689 0.000000
-0.297318 -0.278636 0.000000
-0.864586 -0.139608 0.000000
-1.000000 0.250000 0.000000
-0.388624 0.161234 0.000000
-0.593382 0.164300 0.000000
-0.917956 -0.055898 0.000000
-0.804502 -0.206462 0.000000
-1.000000 0.125000 0.000000
-0.280065 0.180306 0.000000
-0.715614 0.307046 0.000000
-0.882002 0.466943 0.000000
-0.831874 0.306558 0.000000
0.000000 1.000000 0.000000
-0.885399 0.187500 0.000000
-0.819565 0.114995 0.000000
-0.785546 0.214169 0.000000
-0.931853 -0.378974 0.000000
-0.665217 0.403772 0.000000
-0.327719 -0.081415 0.000000
-0.927449 0.312500 0.000000
-0.415165 0.306431 0.000000
0.033486 -0.333675 0.000000
-0.509227 0.337508 0.000000
-0.870449 -0.928397 0.000000
-1.000000 -0.750000 0.000000
-0.074311 -0.196401 0.000000
-0.108323 0.139406 0.000000
-0.143311 -0.130047 0.000000
-0.182898 0.063028 0.000000
-0.085157 0.045619 0.000000
-0.311708 0.281831 0.000000
-0.804164 -0.548877 0.000000
-0.901136 -0.508704 0.000000
-0.382930 -0.511646 0.000000
-1.000000 -0.625000 0.000000
-0.921677 -0.687500 0.000000
-0.274516 -0.489875 0.000000
-0.183675 -0.243319 0.000000
-0.164881 -0.504290 0.000000
-0.087134 -0.317432 0.000000
-0.042965 -0.445413 0.000000
0.014430 -0.719924 0.000000
0.333581 -0.540667 0.000000
-0.048408 -0.589807 0.000000
0.094950 -0.457752 0.000000
-0.902413 -0.791967 0.000000
0.088947 -0.603706 0.000000
0.191306 -0.239384 0.000000
-0.139046 -0.591180 0.000000
-0.088397 -0.689351 0.000000
-0.805440 -0.780733 0.000000
-0.250000 -1.000000 0.000000
0.027220 -0.528066 0.000000
0.081984 0.071552 0.000000
0.357790 -0.723664 0.000000
0.292981 -0.828330 0.000000
0.077133 -0.863564 0.000000
0.497580 -0.380049 0.000000
-0.101199 0.367788 0.000000
0.201745 -0.535244 0.000000
0.250000 -1.000000 0.000000
0.393897 0.066398 0.000000
0.143596 -0.143073 0.000000
0.744510 -0.457950 0.000000
0.278609 -0.178441 0.000000
1.000000 0.000000 0.000000
0.500000 -1.000000 0.000000
0.262893 -0.653938 0.000000
0.377823 -0.365871 0.000000
0.446690 -0.215603 0.000000
0.298456 -0.073838 0.000000
0.134731 -0.029462 0.000000
0.474398 -0.707238 0.000000
0.190787 0.069754 0.000000
-0.134489 0.501487 0.000000
0.149603 -0.724596 0.000000
0.167994 -0.344305 0.000000
0.403288 -0.624545 0.000000
0.288900 -0.284412 0.000000
0.272337 -0.424314 0.000000
0.002409 0.145773 0.000000
0.242419 -0.747262 0.000000
0.426085 -0.471083 0.000000
-0.176569 0.233865 0.000000
-0.056988 0.250958 0.000000
0.036481 0.568452 0.000000
0.019211 0.401031 0.000000
-0.748148 -0.859774 0.000000
-0.750000 -1.000000 0.000000
-0.482853 -0.484405 0.000000
-0.542658 -0.411396 0.000000
-0.079091 -0.846255 0.000000
-0.356965 -0.411384 0.000000
-1.000000 -0.875000 0.000000
-0.386997 -0.318115 0.000000
-0.227916 -0.389595 0.000000
-0.131469 -0.404345 0.000000
-0.625000 -0.931526 0.000000
-0.235382 -0.578773 0.000000
-0.246426 -0.746432 0.000000
-0.330011 -0.600675 0.000000
-0.728264 -0.720953 0.000000
-0.462753 -0.783674 0.000000
-0.518502 -0.885445 0.000000
-0.422628 -0.636868 0.000000
-0.600694 -0.774266 0.000000
-0.522065 -0.637348 0.000000
-0.657630 -0.845975 0.000000
-0.630436 -0.666149 0.000000
-0.600951 -0.558807 0.000000
-0.722900 -0.615810 0.000000
-0.817956 -0.663670 0.000000
-0.362963 -0.716416 0.000000
-0.375000 -1.000000 0.000000
-0.324990 -0.810217 0.000000
0.396760 0.446688 0.000000
0.125000 -1.000000 0.000000
0.045331 -0.213412 0.000000
0.040540 -0.102909 0.000000
0.291767 0.033310 0.000000
0.294505 0.199018 0.000000
0.668926 -0.226138 0.000000
0.443849 -0.070193 0.000000
0.369844 -0.019827 0.000000
0.374309 -0.144284 0.000000
0.602806 -0.139820 0.000000
0.507260 -0.141687 0.000000
0.475214 -0.556805 0.000000
-0.031738 0.490888 0.000000
-0.006663 -0.906212 0.000000
0.003999 -0.809984 0.000000
-0.148007 -0.771614 0.000000
-0.197523 -0.886468 0.000000
-0.125000 -1.000000 0.000000
-0.312500 -0.914989 0.000000
-0.412243 -0.877498 0.000000
0.202806 0.466694 0.000000
0.508300 0.255692 0.000000
0.140436 0.216397 0.000000
1.000000 -0.500000 0.000000
0.631367 -0.386280 0.000000
1.000000 -0.250000 0.000000
0.568568 -0.267983 0.000000
0.767807 0.025527 0.000000
0.582148 0.057813 0.000000
0.486227 0.022734 0.000000
0.498031 0.139141 0.000000
0.407095 0.205881 0.000000
0.410514 0.326653 0.000000
0.291232 0.373790 0.000000
0.165848 0.342984 0.000000
0.325898 0.287023 0.000000
0.113859 0.425891 0.000000
0.063138 0.297759 0.000000
0.211976 0.158995 0.000000
0.754972 -0.114688 0.000000
0.560068 -0.477749 0.000000
0.732244 -0.352172 0.000000
1.000000 -0.375000 0.000000
0.876441 -0.055113 0.000000
0.663758 -0.035643 0.000000
0.561984 -0.046016 0.000000
0.870078 -0.195759 0.000000
1.000000 -0.125000 0.000000
0.775620 -0.251458 0.000000
0.907346 -0.289212 0.000000
0.865030 -0.522873 0.000000
0.701428 -0.682250 0.000000
0.597493 -0.602987 0.000000
1.000000 -0.750000 0.000000
0.758197 -0.576867 0.000000
0.855048 -0.697022 0.000000
0.590662 -0.719718 0.000000
0.517774 -0.850945 0.000000
0.406714 -0.826356 0.000000
0.695035 -0.845815 0.000000
0.750000 -1.000000 0.000000
0.657547 -0.516830 0.000000
0.950084 -0.615109 0.000000
0.853416 -0.400108 0.000000
0.872918 -0.872918 0.000000
0.605403 -0.813761 0.000000
0.610876 -0.939805 0.000000
0.770811 -0.766869 0.000000
0.906646 -0.780636 0.000000
0.777269 -0.903389 0.000000
0.192984 -0.894509 0.000000
-0.174414 0.747892 0.000000
-0.500000 1.000000 0.000000
-0.438539 0.434387 0.000000
-0.325805 0.399111 0.000000
-0.229456 0.449007 0.000000
0.072287 0.792438 0.000000
0.730524 0.685449 0.000000
0.597501 0.189105 0.000000
0.375000 -1.000000 0.000000
0.437500 -0.921697 0.000000
0.312500 -0.924432 0.000000
0.875000 -1.000000 0.000000
1.000000 -0.875000 0.000000
-0.089107 0.637355 0.000000
0.500000 1.000000 0.000000
-0.348496 0.524369 0.000000
-0.224132 0.551538 0.000000
-0.035353 0.735331 0.000000
0.049147 0.672804 0.000000
-0.250000 1.000000 0.000000
0.204987 0.839692 0.000000
-0.027701 0.869004 0.000000
-0.513452 0.599394 0.000000
-0.504925 0.503756 0.000000
-0.637710 0.540116 0.000000
-0.190302 0.647444 0.000000
-0.367266 0.726915 0.000000
-0.750000 1.000000 0.000000
-0.125000 1.000000 0.000000
-0.306510 0.630403 0.000000
-0.412411 0.631116 0.000000
-0.719438 0.662221 0.000000
-0.156172 0.875213 0.000000
-0.611867 0.645817 0.000000
-1.000000 0.750000 0.000000
-1.000000 0.625000 0.000000
-0.280704 0.828088 0.000000
-0.804073 0.617270 0.000000
-0.825941 0.760593 0.000000
-0.427777 0.866304 0.000000
-0.637304 0.839924 0.000000
-0.652665 0.739191 0.000000
-0.509400 0.746187 0.000000
-0.532071 0.849384 0.000000
0.250000 1.000000 0.000000
0.226707 0.700515 0.000000
0.132934 0.718653 0.000000
0.416819 0.801468 0.000000
0.375000 1.000000 0.000000
0.304285 0.783905 0.000000
0.385912 0.630187 0.000000
0.345352 0.890084 0.000000
0.125000 1.000000 0.000000
0.750000 1.000000 0.000000
0.625000 1.000000 0.000000
0.452369 0.903265 0.000000
0.076713 0.901788 0.000000
0.187500 0.931076 0.000000
-0.899872 0.675983 0.000000
-0.908914 0.569926 0.000000
-0.920256 0.875000 0.000000
-0.914687 0.783511 0.000000
-0.794696 0.882430 0.000000
-0.875000 1.000000 0.000000
-0.732908 0.801660 0.000000
-0.701644 0.914336 0.000000
-0.594397 0.942045 0.000000
-0.333699 0.926251 0.000000
0.267803 0.578182 0.000000
0.152245 0.570862 0.000000
0.302522 0.483250 0.000000
0.538436 0.792461 0.000000
0.451691 0.706746 0.000000
1.000000 0.500000 0.000000
0.558632 0.548327 0.000000
0.537649 0.402026 0.000000
0.571458 0.672290 0.000000
0.649923 0.766676 0.000000
0.803825 0.838789 0.000000
0.687220 0.112069 0.000000
1.000000 0.125000 0.000000
1.000000 0.250000 0.000000
0.486134 0.484070 0.000000
0.770461 0.443291 0.000000
0.869358 0.048838 0.000000
0.647266 0.460960 0.000000
0.652676 0.319487 0.000000
0.724343 0.560058 0.000000
0.638050 0.602755 0.000000
0.722839 0.224587 0.000000
1.000000 0.750000 0.000000
0.866218 0.548601 0.000000
1.000000 0.625000 0.000000
0.617692 0.881226 0.000000
0.865937 0.714908 0.000000
0.813135 0.631665 0.000000
0.875000 0.952144 0.000000
0.923703 0.842540 0.000000
0.719963 0.900380 0.000000
0.907397 0.631825 0.000000
0.869146 0.153029 0.000000
0.854834 0.309116 0.000000
1.000000 0.375000 0.000000
0.891314 0.429592 0.000000
0.814535 0.226721 0.000000
0.909444 0.235424 0.000000
0.755073 0.339999 0.000000

CELLS 620 2480
 3 76 78 79
 3 15 13 60
 3 42 55 53
 3 7 30 32
 3 71 162 24
 3 111 90 119
 3 23 10 34
 3 30 7 8
 3 78 68 79
 3 35 50 15
 3 11 10 23
 3 11 8 7
 3 134 28 9
 3 7 32 25
 3 7 22 11
 3 14 33 23
 3 23 27 11
 3 30 8 62
 3 51 5 20
 3 146 148 150
 3 75 154 19
 3 28 14 34
 3 29 61 53
 3 62 16 41
 3 155 75 76
 3 30 52 47
 3 134 133 33
 3 34 37 50
 3 35 19 28
 3 59 53 55
 3 17 35 60
 3 246 235 247
 3 37 39 45
 3 81 69 71
 3 7 25 22
 3 14 28 134
 3 49 36 45
 3 58 6 59
 3 49 39 20
 3 31 42 61
 3 47 32 30
 3 23 33 138
 3 22 25 38
 3 161 83 65
 3 127 74 52
 3 76 60 13
 3 34 10 37
 3 41 24 72
 3 38 39 22
 3 23 138 27
 3 24 16 71
 3 30 41 52
 3 11 27 8
 3 18 61 29
 3 26 46 63
 3 74 47 52
 3 103 90 111
 3 6 25 48
 3 19 17 75
 3 79 155 76
 3 22 10 11
 3 28 19 9
 3 17 19 35
 3 67 94 89
 3 45 36 15
 3 38 20 39
 3 22 39 10
 3 49 20 5
 3 15 50 45
 3 34 35 28
 3 10 39 37
 3 38 25 6
 3 52 41 72
 3 6 48 29
 3 16 62 27
 3 64 66 32
 3 57 63 46
 3 269 268 262
 3 61 42 53
 3 254 246 261
 3 27 44 16
 3 34 14 23
 3 32 48 25
 3 54 42 31
 3 73 4 124
 3 36 49 5
 3 39 49 45
 3 34 50 35
 3 37 45 50
 3 18 29 66
 3 57 55 63
 3 63 54 26
 3 254 255 18
 3 118 235 102
 3 66 29 48
 3 54 40 26
 3 6 53 59
 3 51 57 46
 3 255 264 262
 3 6 29 53
 3 51 20 57
 3 38 58 20
 3 6 58 38
 3 57 20 58
 3 55 57 59
 3 58 59 57
 3 103 88 90
 3 24 4 73
 3 31 268 290
 3 83 84 65
 3 27 62 8
 3 35 15 60
 3 74 234 64
 3 68 89 79
 3 66 48 32
 3 64 32 47
 3 335 336 332
 3 81 16 44
 3 54 63 55
 3 151 147 149
 3 74 127 43
 3 90 88 96
 3 41 16 24
 3 30 62 41
 3 42 54 55
 3 119 174 100
 3 120 91 161
 3 81 71 16
 3 73 72 24
 3 72 70 127
 3 123 120 88
 3 72 73 70
 3 234 233 64
 3 47 74 64
 3 79 89 94
 3 76 75 17
 3 60 76 17
 3 94 145 155
 3 136 80 139
 3 142 144 143
 3 76 13 78
 3 144 80 77
 3 1 67 137
 3 94 67 131
 3 44 136 139
 3 69 81 83
 3 33 133 136
 3 92 142 143
 3 139 81 44
 3 83 140 84
 3 93 85 87
 3 84 82 87
 3 123 88 103
 3 65 84 88
 3 167 166 189
 3 237 309 308
 3 92 87 82
 3 90 87 85
 3 96 84 87
 3 162 69 161
 3 136 77 80
 3 89 68 137
 3 111 121 86
 3 174 119 85
 3 108 91 122
 3 123 103 86
 3 139 80 82
 3 142 82 80
 3 92 93 87
 3 148 133 150
 3 148 77 133
 3 4 162 115
 3 113 112 101
 3 115 106 114
 3 84 96 88
 3 87 90 96
 3 125 111 119
 3 125 98 111
 3 91 106 161
 3 122 120 123
 3 99 218 98
 3 85 119 90
 3 113 168 122
 3 108 106 91
 3 12 160 173
 3 174 93 135
 3 179 21 157
 3 177 12 173
 3 104 230 160
 3 122 123 112
 3 83 161 69
 3 121 98 116
 3 125 230 99
 3 97 115 117
 3 126 86 171
 3 125 119 230
 3 122 112 113
 3 164 198 163
 3 113 186 170
 3 216 225 211
 3 97 117 198
 3 162 71 69
 3 112 126 101
 3 169 199 204
 3 147 179 146
 3 156 146 158
 3 106 108 114
 3 172 196 129
 3 126 171 200
 3 199 169 165
 3 230 119 100
 3 128 127 70
 3 168 114 108
 3 110 240 239
 3 200 184 101
 3 202 223 183
 3 126 112 123
 3 114 163 115
 3 234 74 43
 3 102 130 172
 3 218 240 217
 3 43 127 102
 3 111 86 103
 3 163 114 167
 3 124 97 182
 3 91 120 122
 3 121 111 98
 3 88 120 65
 3 126 123 86
 3 172 244 118
 3 97 124 4
 3 73 124 70
 3 171 86 121
 3 99 98 125
 3 248 263 231
 3 128 130 102
 3 72 127 52
 3 70 124 128
 3 197 124 182
 3 127 128 102
 3 182 97 198
 3 4 115 97
 3 108 122 168
 3 196 172 130
 3 178 176 158
 3 152 145 149
 3 21 147 141
 3 150 152 149
 3 131 67 132
 3 136 44 138
 3 14 134 33
 3 9 133 134
 3 95 178 157
 3 136 133 77
 3 92 143 93
 3 155 79 94
 3 144 142 80
 3 67 1 132
 3 138 44 27
 3 33 136 138
 3 140 82 84
 3 81 139 83
 3 83 139 140
 3 82 140 139
 3 143 144 156
 3 141 131 132
 3 82 142 92
 3 132 21 141
 3 148 156 144
 3 94 131 145
 3 178 179 157
 3 137 67 89
 3 93 175 135
 3 141 151 131
 3 135 177 173
 3 149 147 146
 3 176 178 95
 3 150 149 146
 3 145 131 151
 3 146 156 148
 3 153 133 9
 3 147 151 141
 3 145 151 149
 3 150 153 152
 3 9 154 153
 3 133 153 150
 3 9 19 154
 3 145 152 154
 3 153 154 152
 3 145 154 155
 3 75 155 154
 3 77 148 144
 3 143 156 158
 3 192 195 191
 3 282 280 278
 3 161 65 120
 3 173 160 100
 3 162 161 106
 3 115 162 106
 3 4 24 162
 3 164 163 105
 3 115 163 117
 3 105 190 191
 3 159 193 192
 3 210 107 214
 3 201 208 165
 3 170 166 168
 3 170 186 169
 3 163 167 105
 3 168 167 114
 3 170 168 113
 3 168 166 167
 3 185 207 206
 3 186 165 169
 3 101 186 113
 3 204 188 205
 3 116 171 121
 3 223 210 183
 3 244 172 129
 3 102 172 118
 3 174 173 100
 3 177 135 176
 3 93 174 85
 3 173 174 135
 3 93 143 175
 3 176 143 158
 3 135 175 176
 3 176 175 143
 3 158 146 179
 3 176 95 177
 3 179 147 21
 3 158 179 178
 3 182 164 194
 3 252 248 236
 3 169 205 170
 3 238 181 190
 3 195 194 164
 3 182 194 197
 3 101 126 200
 3 201 184 107
 3 184 165 186
 3 208 201 223
 3 165 184 201
 3 171 212 200
 3 184 186 101
 3 304 322 334
 3 319 307 305
 3 189 105 167
 3 316 318 319
 3 189 190 105
 3 205 166 170
 3 190 189 188
 3 310 188 204
 3 190 181 191
 3 192 191 181
 3 105 191 164
 3 310 238 188
 3 301 193 159
 3 193 180 194
 3 191 195 164
 3 180 196 194
 3 194 196 197
 3 192 193 195
 3 194 195 193
 3 196 180 300
 3 197 196 130
 3 130 128 197
 3 124 197 128
 3 163 198 117
 3 164 182 198
 3 116 216 212
 3 199 187 204
 3 184 200 221
 3 187 199 203
 3 210 223 107
 3 203 207 109
 3 202 185 209
 3 310 204 187
 3 203 199 206
 3 205 188 189
 3 205 189 166
 3 169 204 205
 3 199 165 208
 3 202 209 223
 3 107 223 201
 3 206 207 203
 3 199 208 206
 3 185 206 209
 3 208 209 206
 3 221 107 184
 3 210 215 222
 3 211 212 216
 3 211 227 215
 3 116 212 171
 3 212 211 214
 3 214 107 221
 3 210 214 215
 3 215 214 211
 3 225 217 226
 3 222 183 210
 3 116 217 216
 3 228 227 224
 3 116 98 218
 3 217 225 216
 3 230 241 99
 3 116 218 217
 3 226 217 110
 3 228 213 215
 3 226 219 225
 3 226 229 219
 3 200 212 221
 3 214 221 212
 3 215 213 222
 3 213 183 222
 3 223 209 208
 3 243 213 228
 3 243 242 2
 3 211 225 219
 3 110 220 226
 3 229 226 220
 3 211 219 227
 3 227 219 229
 3 227 228 215
 3 243 228 224
 3 242 229 220
 3 227 229 224
 3 160 230 100
 3 241 230 104
 3 262 31 255
 3 233 18 66
 3 231 244 248
 3 118 256 247
 3 64 233 66
 3 233 234 246
 3 235 234 43
 3 235 246 234
 3 102 235 43
 3 235 118 247
 3 300 277 249
 3 288 287 251
 3 302 286 278
 3 303 278 280
 3 188 238 190
 3 312 336 311
 3 217 240 110
 3 218 241 240
 3 241 218 99
 3 104 239 241
 3 240 241 239
 3 244 249 248
 3 229 242 224
 3 242 243 224
 3 249 236 248
 3 236 249 277
 3 252 287 56
 3 263 252 259
 3 254 18 233
 3 256 118 244
 3 267 298 270
 3 249 244 129
 3 244 231 256
 3 245 286 324
 3 303 280 281
 3 247 260 246
 3 263 248 252
 3 196 300 129
 3 277 276 251
 3 231 260 256
 3 255 61 18
 3 246 254 233
 3 246 260 261
 3 254 253 255
 3 264 273 272
 3 61 255 31
 3 231 263 267
 3 257 260 231
 3 258 296 297
 3 0 291 294
 3 268 289 290
 3 256 260 247
 3 252 56 259
 3 261 260 257
 3 273 261 257
 3 261 253 254
 3 264 255 253
 3 0 265 291
 3 259 250 263
 3 231 267 257
 3 253 261 273
 3 296 293 295
 3 262 268 31
 3 265 266 289
 3 290 40 54
 3 263 250 267
 3 298 232 270
 3 262 264 272
 3 269 289 268
 3 262 272 295
 3 289 269 292
 3 271 272 273
 3 257 267 270
 3 253 273 264
 3 274 232 297
 3 296 295 271
 3 257 270 273
 3 274 273 270
 3 232 274 270
 3 271 273 274
 3 251 236 277
 3 287 252 236
 3 301 281 299
 3 300 249 129
 3 251 276 280
 3 286 282 278
 3 282 288 251
 3 302 278 303
 3 281 280 276
 3 279 282 286
 3 299 281 276
 3 329 309 327
 3 275 282 279
 3 275 288 282
 3 280 282 251
 3 308 324 302
 3 329 285 324
 3 159 313 281
 3 286 302 324
 3 279 286 245
 3 251 287 236
 3 56 287 283
 3 275 283 288
 3 287 288 283
 3 290 289 266
 3 40 290 266
 3 290 54 31
 3 265 292 291
 3 291 292 293
 3 289 292 265
 3 293 292 269
 3 293 269 295
 3 294 293 258
 3 262 295 269
 3 293 294 291
 3 271 295 272
 3 297 296 271
 3 258 293 296
 3 274 297 271
 3 258 297 232
 3 267 250 298
 3 232 298 250
 3 276 277 300
 3 301 299 180
 3 180 299 300
 3 300 299 276
 3 193 301 180
 3 281 301 159
 3 313 306 305
 3 303 307 302
 3 305 306 316
 3 305 303 281
 3 192 181 306
 3 238 317 181
 3 307 303 305
 3 284 327 3
 3 159 192 306
 3 307 308 302
 3 308 307 237
 3 328 325 321
 3 328 3 327
 3 329 308 309
 3 315 311 331
 3 310 187 331
 3 314 334 322
 3 336 333 332
 3 315 187 203
 3 335 310 331
 3 281 313 305
 3 159 306 313
 3 316 306 317
 3 337 335 332
 3 337 332 314
 3 109 311 315
 3 306 181 317
 3 318 316 314
 3 238 310 320
 3 316 317 337
 3 325 309 237
 3 237 307 319
 3 316 319 305
 3 237 319 318
 3 109 315 203
 3 238 320 317
 3 330 321 325
 3 314 322 318
 3 318 322 326
 3 324 285 245
 3 304 323 330
 3 237 326 325
 3 330 322 304
 3 318 326 237
 3 330 326 322
 3 329 327 284
 3 328 327 309
 3 325 328 309
 3 3 328 321
 3 285 329 284
 3 308 329 324
 3 321 330 323
 3 326 330 325
 3 331 187 315
 3 320 335 337
 3 332 334 314
 3 334 332 333
 3 304 334 333
 3 310 335 320
 3 336 335 331
 3 311 336 331
 3 333 336 312
 3 316 337 314
 3 320 337 317

CELL_TYPES 620
5
5
5
5
5
5
5
5
5
5
5
5
5
5
5
5
5
5
5
5
5
5
5
5
5
5
5
5
5
5
5
5
5
5
5
5
5
5
5
5
5
5
5
5
5
5
5
5
5
5
5
5
5
5
5
5
5
5
5
5
5
5
5
5
5
5
5
5
5
5
5
5
5
5
5
5
5
5
5
5
5
5
5
5
5
5
5
5
5
5
5
5
5
5
5
5
5
5
5
5
5
5
5
5
5
5
5
5
5
5
5
5
5
5
5
5
5
5
5
5
5
5
5
5
5
5
5
5
5
5
5
5
5
5
5
5
5
5
5
5
5
5
5
5
5
5
5
5
5
5
5
5
5
5
5
5
5
5
5
5
5
5
5
5
5
5
5
5
5
5
5
5
5
5
5
5
5
5
5
5
5
5
5
5
5
5
5
5
5
5
5
5
5
5
5
5
5
5
5
5
5
5
5
5
5
5
5
5
5
5
5
5
5
5
5
5
5
5
5
5
5
5
5
5
5
5
5
5
5
5
5
5
5
5
5
5
5
5
5
5
5
5
5
5
5
5
5
5
5
5
5
5
5
5
5
5
5
5
5
5
5
5
5
5
5
5
5
5
5
5
5
5
5
5
5
5
5
5
5
5
5
5
5
5
5
5
5
5
5
5
5
5
5
5
5
5
5
5
5
5
5
5
5
5
5
5
5
5
5
5
5
5
5
5
5
5
5
5
5
5
5
5
5
5
5
5
5
5
5
5
5
5
5
5
5
5
5
5
5
5
5
5
5
5
5
5
5
5
5
5
5
5
5
5
5
5
5
5
5
5
5
5
5
5
5
5
5
5
5
5
5
5
5
5
5
5
5
5
5
5
5
5
5
5
5
5
5
5
5
5
5
5
5
5
5
5
5
5
5
5
5
5
5
5
5
5
5
5
5
5
5
5
5
5
5
5
5
5
5
5
5
5
5
5
5
5
5
5
5
5
5
5
5
5
5
5
5
5
5
5
5
5
5
5
5
5
5
5
5
5
5
5
5
5
5
5
5
5
5
5
5
5
5
5
5
5
5
5
5
5
5
5
5
5
5
5
5
5
5
5
5
5
5
5
5
5
5
5
5
5
5
5
5
5
5
5
5
5
5
5
5
5
5
5
5
5
5
5
5
5
5
5
5
5
5
5
5
5
5
5
5
5
5
5
5
5
5
5
5
5
5
5
5
5
5
5
5
5
5
5
5
5
5
5
5
5
5
5
5
5
5
5
5
5
5
5
5
5
5
5
5
5
5
5
5
5
5
5
5
5
5
5
5
5
5
5
5
5
5
5
5
5
5
5
5
5
5
5
5
5
5
5
5
5
5
5
5
5
5
5
5
5
5
5
5
5
5
5
5
5
5
5
5
5
5
5
5
5
5
5

POINT_DATA 338
SCALARS field double
LOOKUP_TABLE default
 0.000000
 0.000000
 0.000000
 0.000000
 1.000000
 0.000000
 0.315876
 0.500000
 0.568632
 0.371639
 0.375000
 0.500000
 0.000000
 0.000000
 0.424277
 0.000000
 0.761276
 0.183328
 0.442009
 0.276573
 0.130501
 0.000000
 0.404192
 0.519247
 0.860719
 0.390755
 0.000000
 0.615599
 0.333241
 0.400237
 0.609247
 0.225335
 0.505434
 0.517137
 0.352549
 0.178584
 0.000000
 0.270508
 0.261377
 0.237742
 0.000000
 0.724355
 0.225828
 0.659311
 0.702682
 0.135414
 0.000000
 0.611376
 0.406618
 0.082044
 0.195498
 0.000000
 0.719935
 0.284386
 0.117998
 0.168126
 0.000000
 0.114601
 0.180435
 0.214454
 0.068147
 0.334783
 0.672281
 0.072551
 0.584835
 0.666325
 0.490773
 0.071603
 0.000000
 0.803599
 0.860594
 0.856689
 0.817102
 0.914843
 0.688292
 0.195836
 0.098864
 0.488354
 0.000000
 0.078323
 0.510125
 0.756681
 0.495710
 0.682568
 0.554587
 0.280076
 0.459333
 0.410193
 0.542248
 0.097587
 0.396294
 0.760616
 0.408820
 0.310649
 0.194560
 0.000000
 0.471934
 0.918016
 0.276336
 0.171670
 0.136436
 0.502420
 0.632212
 0.464756
 0.000000
 0.606103
 0.856404
 0.255490
 0.721391
 0.000000
 0.000000
 0.346062
 0.622177
 0.553310
 0.701544
 0.865269
 0.292762
 0.809213
 0.498513
 0.275404
 0.655695
 0.375455
 0.711100
 0.575686
 0.854227
 0.252738
 0.528917
 0.766135
 0.749042
 0.431548
 0.598969
 0.140226
 0.000000
 0.515595
 0.457342
 0.153745
 0.588616
 0.000000
 0.613003
 0.610405
 0.595655
 0.068474
 0.421227
 0.253568
 0.399325
 0.271736
 0.216326
 0.114555
 0.363132
 0.225734
 0.362652
 0.154025
 0.333851
 0.399049
 0.277100
 0.182044
 0.283584
 0.000000
 0.189783
 0.553312
 0.000000
 0.786588
 0.897091
 0.708233
 0.705495
 0.331074
 0.556151
 0.630156
 0.625691
 0.397194
 0.492740
 0.443195
 0.509112
 0.093788
 0.190016
 0.228386
 0.113532
 0.000000
 0.085011
 0.122502
 0.533306
 0.491700
 0.783603
 0.000000
 0.368633
 0.000000
 0.431432
 0.232193
 0.417852
 0.513773
 0.501969
 0.592905
 0.589486
 0.626210
 0.657016
 0.674102
 0.574109
 0.702241
 0.788024
 0.245028
 0.439932
 0.267756
 0.000000
 0.123559
 0.336242
 0.438016
 0.129922
 0.000000
 0.224380
 0.092654
 0.134970
 0.298572
 0.397013
 0.000000
 0.241803
 0.144952
 0.280282
 0.149055
 0.173644
 0.154185
 0.000000
 0.342453
 0.049916
 0.146584
 0.127082
 0.186239
 0.060195
 0.229189
 0.093354
 0.096611
 0.105491
 0.252108
 0.000000
 0.561461
 0.600889
 0.550993
 0.207562
 0.269476
 0.402499
 0.000000
 0.078303
 0.075568
 0.000000
 0.000000
 0.362645
 0.000000
 0.475631
 0.448462
 0.264669
 0.327196
 0.000000
 0.160308
 0.130996
 0.400606
 0.495075
 0.362290
 0.352556
 0.273085
 0.000000
 0.000000
 0.369597
 0.368884
 0.280562
 0.124787
 0.354183
 0.000000
 0.000000
 0.171912
 0.195927
 0.174059
 0.133696
 0.160076
 0.260809
 0.253813
 0.150616
 0.000000
 0.299485
 0.281347
 0.198532
 0.000000
 0.216095
 0.369813
 0.109916
 0.000000
 0.000000
 0.000000
 0.096735
 0.098212
 0.068924
 0.100128
 0.091086
 0.079744
 0.085313
 0.117570
 0.000000
 0.198340
 0.085664
 0.057955
 0.073749
 0.421818
 0.429138
 0.516750
 0.207539
 0.293254
 0.000000
 0.441368
 0.462351
 0.327710
 0.233324
 0.161211
 0.312780
 0.000000
 0.000000
 0.513866
 0.229539
 0.130642
 0.352734
 0.347324
 0.275657
 0.361950
 0.277161
 0.000000
 0.133782
 0.000000
 0.118774
 0.134063
 0.186865
 0.047856
 0.076297
 0.099620
 0.092603
 0.130854
 0.145166
 0.000000
 0.108686
 0.185465
 0.090556
 0.244927

